"THE MAG REAL EAD... his satanic majesty's  COMPUTER DOOM & DOOM 2  N VIDEO NEONGUIGUIN surcu original and the sea rate the follow-up GAMES first review STREET RACER it's mario kart 2 and more! exclusive this disney game is dynamite! MICKEY MANTA FRE TEINO MAGAZINE EVERY MAJOR NEW GAME REVIEWED AND RATED CHADS CONTROL sonic's 300 we've never seen a shoom -up like it! INSIDE THE BEST MAGAZINE FOR NEW GAMES MACHINES JAGUAR with exclusive shots of amazing future games THREE BIG FIRST REVIEWS! NOVEMBER 1994 ISSUE NO 156 68.00 ASCH OM 12.50 S$ 13.50 $5.95 7000 L ISSN 0261-3697 BEST FOR NEW MACHINES 11 > EXCLUSIVE! BURN:CYCLE REVIEWED wasting the CD-i doubters EXCLUSIVE! FIFA 3DO REVIEWED the best ever version by far.... EXCLUSIVE! Mow 'em down! RISE OF THE ROBOTS FIRST REVIEW 100% INDEPENDENT 9770261\"369062\" "


"MIND BLOWING FOUR PLAYER DESTRUCTION upp 09 2 Dua DE D Dang Sun fah OO 1:09. \"Playable and addictive beyond belief ... Super Bomberman 2 is it\" Total 94% «Superb multi-player action» NMS 92% AVAILABLE IN NOVEMBER "


"SIVE.COM SUPER NINTENDO ENTERTAINMENT SYSTEM HOSON GROUP HUDSON SOFT Hudson Solt is a trademark of Hudson Soft Co. Lid. 1994 Hudson Soft Super Nintendo Entertainment System is a trademark of Nintendo. As ng ts reserved "


"CVG CONTENT DOUBLE DOOM GAMES Doom & Doom Special Edition on console o Doom 2 on PC @XCLUSIVE! MANAGING EDITOR: STEVE JAMES ASSOCIATE EDITOR: MARK PATTERSON DEPUTY EDITOR: GARY LORD ART EDITOR: JULIE HEAP GROUP ART EDITOR: JEFF ZIE STAFF WRITERS: DENIZ AHMET RIK SKEWS CONTRIBUTING WRITERS: LUCY HICKMAN TONY DILLON DEAN EVANS RADION AUTOMATIC TOM GUISE COVER ILLUSTRATION: SEBASTIAN QUIGLEY Without a shadow of a doubt one of the finest games ever to smash its way into the home; the incredible Doom is finally available to a much a wider audience. Fantastic. So feast your eyes on the screen shots from the 32-X and Jaguar versions, starting on page 34 and then turn to page 58 and read the review of the sequel on PC. Editorial enquiries: 071-972 6700 Advertising enquiries: 071-713 1983 Subscription and Back Issues enquiries (9.30-5.30 Mon-Fri): 0858 468888 CVG Headquarters: Priory Court, 30-32 Farringdon Lane, London EC1R 3AU TEL: 071-972 6700 FAX: 071-972 6701 ADVERTISING MANAGER: Simon Hamer; ADVERTISING EXECUTIVE: Holly Eadie; PRODUCTION: Tina Gynn; SYSTEMS AND PREPRESS MANAGER: Sarah-Jane Leavey: MARKETING MANAGER: Karen Williams; MARKETING DIRECTOR Marc Swallow; PRODUCT MANAGER: Nichola Bentley; EDITORIAL DIRECTOR: David Kelly MANAGING DIRECTOR: Terry Pratt SUBSCRIPTION ENQUIRIES: CVG Subscriptions, Tower Publishing, Tower House, Sovereign Place, Lathkill Street, Market Harborough, Leicestershire LE16 9ES TEL: 0858 468811 RATES: 12 ISSUES UK: .00, AIRMAIL EUROPE: .00, AIRMAIL REST OF WORLD ZONE 1: .00, AIRMAIL REST OF WORLD ZONE 2: .00, REST OF WORLD SURFACE: .00, BFPO: .00, EIRE: .00 PRINTED IN THE UK BY: St Ives, Peterborough ADDITIONAL COLOUR BY: PrePress, London EC1 DISTRIBUTED BY: Frontline (c) COPYRIGHT: Computer and Video Games 1994 ISBN NO: 0261-3597 DISCLAIMER: Although we take great care to ensure as far as reasonably possible the accuracy of the information contained in this magazine, CVG and the publishers cannot be held responsible for omissions, errors, misprints or mistakes which may occur. NOVEMBER 1994  ISSUE 156 Goluen CRUIS'N AROUND REGULARS WOS Remember where you read it first. We lift the incredibly tight lid off the pressure cooker that is Nintendo's next console, the Ultra 64, to bring you the first yes the very first shots from one of the machine's first games, Cruis'n USA. 6 News 102 Out Now 106 Help! 112 Big Eds & hot compo! | 113 Charts 114 Next Month 25 MILLION REA "


"CONTENTS CVG SELECT COURSE REVIEWS : 90 Street Racer SNES The best multi-player race game available. If there ever was a Mario Kart 2 this would be it. TEKNO SPECIAL 3F Micro Machines 2 p.100 94 Probotector Mega Drive Incredible arcade mayhem from  Konami in this never-ending plat form shoot-'em-up. : 70 Batman and Robin -SNES You've read the comic, watched the TV series, now play the game! CVG WORK IN PROGRESS 74 Way of the Warrior 3D0 : More gore and blood than a day trip to Hell with Clive Barker & Dracula, and it plays like Mortal Kombat to boot! Burn:Cycle 2.40 MAJOR GAME EVERY REVIEWED AND RATED 76 Smurfs SNES As cute and as cheerful as they come. And that's all you need to know about this difficult game. : 96 Colonization PC : One for the strategy buffs and for  the value conscious among you. 78 Sparkster SNES/Mega Drive A very imaginative and lovingly presented platform game. Konami's best ever release? Alien vs Predator p.44 40 Burn:Cycle CD-I You've heard about interactive movies, but you've never played one that's this interactive... Tower Assault p.14 14 Tower Assault PC/Amiga 16 Magic Carpet PC-CD 18 Dawn Patrol PC 98 Mickey Mania Mega Drive The best Mickey game has arrived, and it's in glorious black and white. Eh? : 54 Rise of the Robots PC/SNES 42 Earthworm Jim SNES/Mega Drive The most wonderfully animated platform game this year? It's taken a while but this stunning-looking beat-'em-up has finally arrived and we've got the exclusive first review! 58 Doom 2-PC The PC game to end all others returns in a blood-splat. tered sequel. Gore city... 60 Red Zone Mega Drive Is Time Warner's big chopper game more fun to play with than Jungle Strike? FIFA on 3D0 p. 64 Total Distortion p.20 20 Total Distortion PC-CD 22 Power Drive SNES/Mega Drive 23 WolverineSNES/Mega Drive 2Aladdin Amiga 26 WWF Raw SNES/Mega Drive 29 Street Hockey SNES 61 Super Bomber Man -SNES A contender for numero uno most playable game of all time or not? 81 Mega Bomberman Mega Drive The Mega Drive gets its first sweet taste of bombermen. 100 Micro Machines 2Mega Drive Simplistic gameplay at its best. Best four-player game ever? SUPER SHORTS Wolverine p.23 44 Alien Vs Predator : 64 FIFA — 3DO Jaguar Amazing graphics prevail in this lavish version of the SNES and We put the hype to the test in our Mega Drive chart toppers. in-depth review. Time to buy a Jag? 67 Universe CD32 49 SS Lucifer Mega Probotector p.94 Adventure and strategy plus Drive/Game Gear gallery-quality graphics in this lat. : 84 Super Stardust est conversion from Core Design If it's puzzling Lemmings clones A1200 you're after then the Codies may 67 Tiny Toons Asteroids for the 90s with graphics have what you're just after. from the year 2010! Game Boy 52 Guardian CD32 The Toons are back and at their 87 Urban Strike Fast vector graphics and lots of sugariest, driving you mad in this blasting in this Starwing wannabe. cute and wacky adventure, Mega Drive More helicopter blasting in the third 68 Sonic and sequel from EA. 53 Pete Sampras Game Gear Knuckles 89 Tiny Toon The finest tennis game you'll find Mega Drive Adventures on a handheld. Even better than Three games in one, well kind of... the Mega Drive version. as the duo return for more hedgeMega Drive hog antics of the backwardly com. The Toons go into sporty mood with patible kind.  some typically wacky results. : Check 'em out on page 105 NBA Live '95 SNES Samurai Shodown Game Boy World Cup '94 Amiga Pinkie Amiga Battle Bugs PC Dark Legions PC Misadventures of Flink Mega Drive NHL '95 Mega Drive 30 Samurai Shodown 3DO 30 Off-World Interceptor 3D0 32 Wing Commander 3 PC-CD 34 Doom Jaguar 37 Doom Sega 32X RS SINCE 1982... AND STILL THE MAGAZINE REAL GAMERS READ! "


"CVG NEWS connected As Sega gear up for the the wired-up gaming news sectioi Virtua Fighter 2 hits Japan launch of their 32-X, The mystery of Bureau 13 we bring you exclusive Revolutionary Saturn Software NINTENDO TO FOLLOW SEGA'S ROAD TO 32-BIT SUCCESS news of Nintendo's 32Rise returns already Bit SNES booster. Chess killer Floors Kasparov We all know about Nintendo's 64-bit plans, but we bet you didn't know about what the Big Nin's got in store for the SNES... Meanwhile Virtua Dragon's Lair comes to 3DO Fighter 2 is about New AM2 game on the way Despite much posturing and defending its apparent decision to make the Ultra 64 a cartridge based machine, we can now tell you that it won't be. Sources close to Nintendo Japan claim that the Ultra 64 will be CD-based, but that isn't the end for cartridges or the SNES for that matter. The Japanese giant is allegedly planning a 32-bit upgrade cartridge for the Super Nintendo, very much along the lines of Sega's 32-X. Unlike the 32-X it's likely to have just one processor, but thanks to custom architecture it will be at least as powerful. If this happens it will really throw the cat among the pigeons with Sega still attempting to have the 32-X ready for Christmas, and no confirmed UK launch yet for the Saturn. Meanwhile, Nintendo's VR-32 battery-powered virtual reality console looks as though it could be released here after all. If it does appear it should be around Easter '95, although details are so scarce, we wouldn't pin our hopes on it. Apparently it'll no longer come with a head set, instead it might use goggles with the images appearing on the lenses. We hear that there's a lot of enthusiasm for the project from Nintendo's third party developers in Japan. More information on VR32 in our January issue after the machine's unveiled at the Tokyo Toy Show in November. to hit the AITD back for thirds arcades in Japan. We Brutal set to hit SNES bring you first shots... FRITZ YOUR BRAIN MK2 a record breaker Fancy exercising your brain and as your fingers? Well Fritz Chess o PC d o just that. Before you think to yourse , Dot chess' and turn to another story, believe us when we say this is some very different. First off, it's beaten Kasparov and, secondly, it features are base of key matches from the last 200 years. Released by Playtime, s esso "


"NEWS CVG connected MORTAL VIRTUA SELL OUT FIGHTER — THE SEQUEL Sceptics may argue that Acclaim's complete sell-out of Mortal Kombat Il is evidence that people are fed up with Street Fighter games. In its first week alone, MK2 pulled in over  million in sales a world record. Its nearest rival, Jungle Book, only managed to sell one copy for every seven sales of MK2 in that same week. Question is: can MK2 hold out until Christmas? If looks could kili, Sega's latest game would be banged up for life. CVG gets a first look at the follow-up to Virtua Fighter... BUREAU 13 Sega's Virtua Fighter hasn't had the success over here that it has enjoyed in Japan. Undeterred, Sega is bringing you the sequel. Virtua Fighter 2 has been designed with the Model 2 board as used in Daytona USA (a CVG 'Gold' winner at 96%). As a result the game can now handle texture mapped polygons, and at a greater speed. As you can see from our exclusive shots it's all looking stunning, and that extends to the detail in the backgrounds where there are more layers of parallax. More importantly, all the characters' moves have been updated to provide real playability so it's no longer a case of the winner being the person who can tap the keys the quickest. The original cast has been added to and there are two new characters including Shun, who is rumoured to be Akira's dad. Although you're unlikely to see Virtua 2 in the arcades before Christmas, we might just have a full review for you in our next issue. Stay tuned. Here's some funky shots from a game coming at you from Gametek. We're not going to tell you anything about it yet because it's all hush-hush, but if you've got a PC with CD drive get excited! WW SEGA'S AM2 Noted wiboard Soya tarded the COPS OUT Armed with a fully loaded Model 2 board Sega target the trigger happy among you. polygons stamped all over the game, especially when you take into account the specs for the Model 2 board it uses and its potential for great coin-ops. Take the plastic gun into your hand and you and a friend can become Rage and Smarty, two detectives from Virtua City out to terminate a firearms syndicate. As with Lethal Enforcers, guns are Virtua Cop is Sega's answer to Lethal Enforcers, and Sega being sega it's no surprise to see the com pany's texture-mapped reloaded by firing off-screen, but what's new is that the graphics zoom in and out, alerting you to the nearest baddie. A novel lock-on-sight feature also means that your sights automatically target not the nearest, but most danger ous of your enemies. Virtua Cops should be making an appearance in the arcades about now, and will proba bly blow you away graphically. All that remains to see is how it plays. Saturn version likely? Watch this space. "


"CVG NEWS connected BACK IN THE DARK Infogrames is at it again. Yep, it's Alone in the Dark 3, and this one seems even better than the second awarded 94% by us). The graphics are more detailed and faster, unfortunately though the game will be CD-ROM-only to start with. The third instalment is set out in Cowboys and Indians territory with the usual exploration and fighting scenario. At one point in the proceedings you turn into a cougar and have to fight the other zombies who have also been transformed in to animals. Strange but true, and available in January. REENTER THE DRAGON As if there weren't enough versions of the spectacular Rise Of The Robots already, Mirage is planning a CD-ROM special edition for release in November. It contains the game as it is, plus a second CD loaded with pre-production images, work-inprogress graphics and loads of FMV footage which didn't make it into the finished game. Also included with this version is a novel written by the ex-editor of our sister mag The One For Amiga Games, Ciaran Brennan. All that, and it's only a tenner more. ROBOTS RISE AGAIN It's been a staggering 11 years since Dragon's Lair made its coin-op debut, but there's still life in the old warhorse as Elite bring it to 3DO. Like most of the other home versions it's the product of Canadian company Readysoft, who've succeeded in making this the best looking version yet. If you fancy a bit of daring with Dirk, it should be in the softshops now. AIRBORNE BRUTALITY It's cartoon combat and carrier chaos this Christmas at Gametek. The company has got the rather tasty looking SNES version of its parent-friendly and rather playable beat-'em-up Brutal on the way. Also in the pipeline is the smart-looking Mode 7 air combat sim, Carrier Aces. It's a split screen head-to-head shoot-em-up where you take each other, or the computer, on in dogfights, aircraft carrier attacks, and defending against your mate's in-coming strike from the gunner's turret on the boat. It certainly looks novel. More info next month. THEY'RE BACK. Feast your eyes on these shots. They're not from any intro, this is Acclaim's Alien Trilogy on Saturn and it's like nothing you've ever seen before. A 32-X version is also planned, but wherever it show's up, it's odds-on to have people reaching into their wallets to buy the machine it's running on. Featuring full-rendered sprites for both the heroes and the acid-blooded aliens and Facehuggers, Alien Trilogy is a shoot-'em-up viewed through the first-person perspective with the player blasting away at the on-coming extra-terrestrials as they search for cocooned survivors. Acclaim's aim has been to make Trilogy as realistic as possible, and as the action progresses scenes recreated from the three films are interspersed with the action as links thus, expect cameo appearances from the APC vehicle and the queen alien. The basic aim of the game is to pick your way to the egg chamber, destroy the Queen and her minions and get out before the place explodes. Just don't expect them to give up without a fight: 'Game over man, game over... "


"TM ENTERTAINMENT SYSTEM OOOOOO In the dark and forbidding cities of tomorrow, crime Syndicafes compete for global domination. As a Syndicate executive it's your mission to expand the Syndicate's empire, arming cyborg agents to the teeth and bringing chaos to the city streets........  Battle for global domination in 50 missions MAP Storm through futuristic living cities, and spreading destruction SYNDICATE 135  Tool up your agents with Uzis and shotguns  Research and develop beller weapons Modily your Cyborgs with extra powerful limbs Stunning action-sensitive music FROM BULLFROG PRODUCTIONS LTD. OCEAN SOFTWARE LIMITED 2 CASTLE STREET CASTLEFIELD MANCHESTER M3 4LZ TEL: 061 832 0033 FAX. 001 834 0050 "


"CVG THE NEW MACHINES HOLLYWOOU TEKNO MENO SPECIAL Nintendo Cruis'n s On Ultra 64 Only CVG has the contacts to bring you the first news on the first Ultra 64 game. The Cruis'n USA coin-op is on test in some arcades now and will be in your home next year. CHOOSE RACE Want to know how long it's the Ultra 64 home techgoing to be before you can nology and gives Nintendo play the first Ultra 64 the invaluable asset of game? Well how about the being able to test games time it takes to get from on the public before your house to the Trocthey've even got the adero in London, where machine launched. Funland has the first Ultra This means you'll be 64 coin-op, Cruis'n USA up able to familiarise yourself and guzzling quids. The with the games (at their machine is based on the best) in the arcades and then be able to play exact promises high-resolution copies on Nintendo's images and stunning texhome console by the close ture-mapped graphics of next year. With the which are scanned from coin-op machines coming actual film footage. Each from hardware giants race is against the clock Williams, the people with nine other racers out responsible for Mortal 2 to be first across the finamongst other things, it ishing line. Like Virtua could turn out that Ultra Racing it'll have three 64 has the most impresviewpoints, but you'll also sive portfolio of games of be able to start on any any debut machine. stage, although you'll have Cruis'n USA is a game to complete the full you're going to be hearing course to win the race. a lot about. The aim is to If you can't face the drive across the US in 14 seething crowds that will stages from San Francisco no doubt swamp the to Washington DC in one machine, stick with CVG of four vehicles. Using as we'll be bringing you an Midway's new UltraGrafx exclusive Cruis'n USA visual system, the game review next issue. "


"THE NEW MACHINES CVG 32-X Virtua Games Ready To Debut 198 react As if 32-X Doom (see page 39) wasn't enough, Sega is also putting the finishing touches to their two eagerly awaited Virtua games. So feast you eyes on the latest shots of the 32-X games you could be playing this Christmas. Virtua Racing Deluxe As you can see this is a quantum leap over Mega Drive Virtua Racing, not only in graphics but in terms speed. The smooth transitions between views and the pace of the action are easily up to coin-op standard plus you get the two new vehicles. Our money's on this game being the biggest selling of the first 32-X titles. Domark Plays things up Star Wars Arcade It's the biggest name game to hit the 32-X and we're promised more levels than the coin-op original. You won't believe your eyes when you see it running. The 32-X shifts the polygon graphics at high speed without so much as a flicker. Outstanding. Already on the 16-bit trail, veteran softco Domark makes some 32-bit plans... FAX SANDFARE Unashamedly looking like Virtua Fighters, this PlayStation beat'em-up could have 'em bleeding in the aisles... Currently in development ters to choose for Sony's PlayStation is from and lots of this yummy looking beatsmooth camera 'em-up which looks rather panning, but shamelessly like Sega's the only real Virtua Fighter. Using a difference similar concept as the between this Sega coin-op, two players and Virtua battle it out in a square Fighter is that the contesarena trying to knock each tants here have weapons. other out or kill their Given the combatants' opponent on the spot. arsenal, this game could There'll be eight characturn out to involve lots of Domark is currently going through renaissance at the moment with a collection of astounding games coming up. The firm's development team, The Kremlin has just received its Sony PlayStation development kit. Scheduled for release in late 1995 is 'Frozen State' (pictured), which will combine cartoon graphics with rendered images, creating a game that's similar in effect to the movie Who Framed Roger Rabbit. Also in development for the PlayStation is a racing sim where the participants are insects and have insectoid driving machines; the early rendered images are looking stunning. Domark has no news on its plans for the Saturn, but as soon as we hear of anything we'll let you know. gore, but there's none at this stage. It'll be interesting to see how well the PlayStation handles this sort of game when it's released mid next year by Takara. Watch this space. PlayStation Virtua Fighter beater on way "


"CVG THE NEW MACHINES TEKNO SPECIAL | UK Release Date Set For PlayStation As the PlayStation's Japanese launch grows nearer, it looks as though we finally know when us Brits can get our hands on it... sneaked a glimpse of a couple of new games: Crime Crackers is an RPG played in first-person perspective and is set in a futuristic space station invaded by monk-like The Japanese launch of the creatures. Also, we've PlayStation is now scheduled sneaked a peep at for November 30 this year, Philosoma, which is a fabuwhile the European launch has fous-looking hi-res shootbeen set for September 1 '95. 'em-up played through exterWe estiamte the UK price tonal and internal cockpit be between -. views. Also, sources tell us that the mighty Ridge Racer will be bundled with the PlayStation. Namco refuses to confirm this, but we should have a mega preview for you very soon. Elsewhere, we've Into The Next Millennium The latest British software company to jump on the PlayStation development train is Millennium, who is branching out big time from its Amiga roots. One to watch is Incoming, a delicious looking space game featuring music from Jesus Jones frontman Mike Edwards. It's out towards the middle of next year. Incoming has recently been signed up by a large Japanese firm for a six figure sum and as you'll see from these early screenshots it's looking like money well spent. don't forget there's more great new machine previews and reviews on the following pages in this issue: 30 Samurai Shodown. 3DO 30 Off World Interceptor  3DO 34 Doom Special Edition  Jaguar 37 Doom  32-X 40 Burn Cycle. CD44 Alien vs Predator  Jaguar 64 FIFA International Soccer  3DO 74 Way Of The Warrior  3DO As if that wasn't enough, don't forget to get stuck into your copy of Tekno the world's first magazine dedicated to the new breed of consoles. Free only with CVG. Ultra 64 To Power. Mortal Kombat MIDWAY, the makers of the Mortal coin-ops has teamed up with Nintendo exclusively for the creation of Mortal Kombat 3. No news yet on what the game will feature, but the good news is that the MK3 coin-op will be using the Ultra 64 technology so it'll be on the 64-bit home console first! The team responsible for Mortal 2 should be working on the follow-up. which will feature all new characters and moves. CD-i to eye Philips is keen to follow up on the success of Burn:Cycle with a gather ing of even more impressive games. The next ones to watch for will be Lost Eden and Creature Shock, as we reveal in these new pics. With both titles scheduled for PC-CD, 3DO, CD32 and possibly PlayStation formats, the CD-i version is likely to be one of the most visually impressive thanks to the Digital Video add-on. Both games will be released early next year for CD-i. OOPS! In last month's Tekno supplement we quoted the price of Philips' CDi-450 as being . It'll actually cost  and is available NOW and not in December. Somy! 12 "


"Professionals mr. Asciipad SN mr. Fighter Stick SN  mr. Asciipad MD-6 mr. Fighter Stick MD-6\" mr. Super Advantage ETS GET TO WORK WITH CREDIT TO POLYGRAM Nintendo Nintendo Nintendo Super Advantage (SNES) Fighter Stick SN (SNES) Fighter Stick MD-6 (Sega Megadrive/ Mega CD) Ascii Pad MD-6 (Sega Megadrive/ Mega CD) Ascii Pad SN (SNES) 8 direction oversize control stick. Extra long cord. Variable speed slow motion. Six super response fire buttons. Turbo speed adjustable fire. Hands-free auto turbo. Hands-free auto turbo. Slow motion feature. Independent turbo control. Independent turbo control. Adjustable turbo speed. 8 direction oversize control stick. Six action buttons. Slow motion control. Hands-free auto turbo. Adjustable turbo speed. Mode control button. 8 direction oversize control stick. Independent turbo control. Six button action. Hands-free auto turbo. Hands-free auto turbo. Slow motion feature. Special ergonomic design. Independent turbo control. Mode feature. ASCIIWARE DISTRIBUTED BY INFOGRAMES LTD. 14 SMEDLEY STREET, LONDON SW4 6PF INFOGRAMES "


"CVG PREVIEW WORK INPROGRESS PC/PC CDIAMIGA/CD32 Shoot-'em-up Team 17 PC.99 PC-CD .99 AMIG .99 PC.99 Out November No other versions planned No other versions available E Climb into some acid proof undies 'cos those nasty aliens are back in town once again... ALIEN BREEDTOWER ASS number of new features have been incorporat. ed into this the third of the Alien Breed series. For a start there will be multiple exit points, which should eliminate the rather linear style of the original games. A nifty retreat feature is also included. This means that when playing a one-player game with nobody else to cover them players can retreat and fire at the same time. There are also some rather pant filling levels set in the dark with the aliens' beady eyes providing the only light source CD owners are in for a special treat because, apart from heaps of rendered graphics and digitised speech, sound FX and music, these versions of Tower Assault will also include the entire Alien Breed 2 game free of charge. TUESE D HE KEY AMIGA AMIGA AMIGA A It might look big, but this is just one of the smaller baddie bosses that are stumbled upon during the game. A There are weapons galore available once enough credit has been amassed. This homing weapon is particularly useful.  GAME DESIGN BY TEAM 17 CONTACT TEAM 17 (0924 291867) FOR INFORMATION 14 "


"PREVIEW CVG AMIGA REAR END AULT The 3D animated cut scenes and the end sequence were rendered on Raptor Plus Renderfarm, while the realistic intro was animated using live action sequences and an animatronic three foot alien model. A Expect lots of lovely sound effects and ditties from top tunesmith Allister Brimbie. THE BITCHES ARE BACK PC LTVESI 10 M MO AMIGA A The player sprites have been made far more detailed than those in the original Alien Breed and its sequel. AMIGA AMIGA AMIGA It's not just the rendered images that are breathtaking, the whole game is full of high quality graphics. Some of the decks have markings on them that point in the direction of the lifts. Quite handy, really it's very easy to get lost in the sprawling levels. Shock, horror! Is that a mashed-up body littering the deck? Hunt down the medikits, you'll need them. This is going to be one seriously tough game. 15 "


"CVG PREVIEW IN PROGRESS PC Shoot-'em-up EA Unconfirmed OUT December No other versions available No other versions planned <You see that shadow cast on the water by the hot air balloon laying an egg? That shadow moves according to where the sun is that does. Shazam Kobar! Size of an elephant! Forget that. If you're looking for in-depth gaming, we're looking at king-size woolly mammoths here! MAGIC CARPET ana, Magic and amounts of damage. Put this Mayhem are the together with the likes of order of the day Meteor, Possession, Steal in Magic Carpet, Mana, Summon Fire, Beyond as you climb aboard your Sight, Lightning, Speed-Up, high-quality rug and blast Rubber Band Stun, Cloud of the bejesus out of just Darkness and Raise Undead about everything in sight in to name but a few and your quest for territorial you'll see that Bullfrog has domination. gone all out for an imaginaWhile you're shoottive approach to death. ing, don't forget to collect A fantasy game some Mana, a residue left by like Magic Carpet wouldn't dead beings, found floating be the same without monin mid-air in the form of sters though, and Bullfrog golden balls. Once collected, hasn't let us down in this Mana-power can be transdepartment either; skillful 3D ported back to your home Studio rendering has created base and used to boost your some weird and outrageous standing in the community. beasties like gryphons, krakMana also means ens and loads of other sea spells, and there's a hoojah monsters for you to have a array of these death-inflictors go at. Slap this all together and life-savers to choose with gorgeous Gouraud shadfrom: Fireballs cast flaminging. 3D texture mapping and spheres across the horizon; some freak weather condiRebounds chuck back at the tions for good measure and opponent what they've just Magic Carpet looks a surefire blasted at you (cheeky!), and winner. Is it? Catch the full, Volcano, funnily enough, definitive Computer And raises up volcanoes which Video Games review soon last for the duration of the and find out. level and can go off at any moment causing huge SEA AND FIRE One spell you can nab is Volcano which allows you to plant a live volcano anywhere you like. It lasts all through the level and can go off at any time A Monkey-faced guards hover, ever-hoping that they can shoot you down. GAME BY BULLFROG CONTACT ELECTRONIC ARTS (0753 549442) FOR INFORMATION 16 "


"PREVIEW CVG WORLDS APART The art department spent months using texturemapping techniques to produce some stunning! graphics like the Jungle-esque and the Stone Henge-type scenes below. Giant killer bees are just one form of fearsome foe you'll encounter on your berugged quest And there's no point cowering in that lighthouse you can run but you can't hide. A \"Wibble, splok, shazmahal.\" \"Oh shut up Fred, you're drunk again!\" Two beings ride towards across the lonesome plains of this strange world. Kaboom! Don't fret if someone chucks this sort of thing at you slap on the Rebound spell and bounce it back. A This shot may show the mythical city in its early stages but the intricate detail of the backgrounds is already in evidence. A Quite why a global planet which looks suspiciously like the Earth is hovering in space we're not sure. Looks good though doesn't it? A Our hero jettisons devastating flaming spheres across the skies from his stock of Fireball spells. 12 "


"CVG PREVIEW IN PROGRESS IPC Flight Sim Empire Unconfirmed Out November No other versions available Amiga version planned DAWN SVAR After the World War Two antics of Overlord, Rowan Software now turns its hand to flying crates to produce Empire's Dawn Patrol... Like any other modern flight sim, Dawn Patrol has a wealth of external views and fixed and floating camera angles. re you fed up with jets and spitfires? Would you like a touch more intimacy and personality in your air combat? Well, with the imminent release of Dawn Patrol from Empire Software, you can relive all the thrills of World War air combat in all tion, 640x480 SVGA mode (blows your socks off). Add to this a very detailed flight model, historically correct pilots, real campaigns, over 90 individual missions and a facility that lets you fly for the Germans as well as the Allies, and what Dawn Patrol promises to deliver is something very special indeed. Origin eat your heart out. exciting game and Dawn Patrol can be played in either bog-standard VGA mode (quite nice) or high-resoluits fully Gouraud. shaded, texture. mapped glory. Being a WW1 fighter ace was glamorous. Imagine the exhilaration of nose-totail dogfighting above the muddy, lice-filled trenches of France; the chatter of the machine guns, the wind in your hair... ah the romance of it all. Er, forget the bit about the three week life expectancy and the fact that the planes were little more than sheds powered by lawnmower engines, this was the dawn of air combat. This is as close as it gets. Like the forthcoming Wings of Glory from Origin, Dawn Patrol lets you take to the skies in a wide variety of flimsy World War One aircraft. Like its previous game, Overlord, Rowan Software has developed a beautiful, noted H Nieuport 1 Heaching 13\" Speed 100 pl Inst. WP Navigate Rel Brg 27 Range 5 Mil os Info Hone Rel Bcg 27°Range 5 Mili The detail of the planes is simply stunning. If you look at your wingmen you can even see the pilots sitting in the cockpit. Shoot your enemies down in spectacular Gouraud-shaded, tex. ture-mapped style... GAME BY ROWAN SOFTWARE CONTACT EMPIRE (081-343 7337) FOR INFORMATION 18 "


"PREVIEW CVG PATROL Final Victory co baren Richthofen of the to the format tvorted. The death of the urter do te Meist Norter les escenas THE MISSION the water Did German aircraft really have purple wings? Wouldn't they stand out like a sore thumb? Even if you're not too hot at history, If you see a purple smudge in the distance, you'd better shoot it down. The British planes were pink, I suppose? Dawn Patrol takes the form of a book which details all the great pilots and individual, historically correct battles. LORDY LORDY... Developers Rowan Software has created a very flexible flight engine which was used to great effect in its previous game, Overlord. Overlord followed the exploits of a World War Two pilot in the Battle of Britain, a desperate conflict that has you strafing! bridges, rail yards and radar stations to prepare the way for the Allied invasion of Normandy. Fail to deplete the Luftwaffe and knock out key radar installations and the invasion will be put off. And it will be all your fault. A There are 20 different aircraft to fly in Dawn Patrol, each of which has its own particular flying characteristics and handling problems. Po nchlbatros Navigate Heading 243 Rel Fra 225 atteg 116 Speed 114 Range Range Dawn Patrol features a stunning SVGA option, but it's just as playable and equally as pretty in the ordinary VGA mode. Unlike modern flight sims, World War One combat allows you to fly right up to the tail of your enemy. Imagine this in 640x480 SVGA graphics... Although the cockpit view is very pretty, it's much easier to sight the enemy using the Dawn Patrol external views. Rowan's fast 3D polygon technology allows a huge number of aircraft to be on screen at once and dogfighting can get really frantic. Dawn Patrol is beautifully pre. sented and like Overlord, great care has been taken to make the mission briefings look as good as possible. MESES Alt Piloted Re EinDekker 1 Next HP Navigate Pas Info Hone Uieu Type Outside Heading 78°Speed 108 Mph Rel Brg 191 Range 6 Miles Rel Brg 350° Range 33 Miles EinDekker Range 0 Miles World War One dogfighting was slow but very violent. If you catch your enemy just right, their fragile plane will explode and shatter. Alt State OVERLORD TOPPED THE PC CHARTS AND IF DAWN PATROL IS ANYTHING LIKE THIS WORLD WAR TWO SIM, EXPECT HIGH PRAISE AND HIGH MARKS RIGHT ACROSS THE BOARD... 19 "


"CVG PREVIEW TORPROGRESS IPC CD-ROM Adventure Mindscape Unconfirmed OUT December No other versions planned No other versions available OK, we admit it, this confused the pants off us. Look, just shut up will you? Read the preview and wait for the review to explain it all... DISTORTION cacs e like games game works but, basically, like this. They it's a series of interconnectstop people ed sub-levels linked by an from using adventure game bit. And it's pathetic terminology like these sub-stages that give interactitainment', or the game its strangeness. whatever the buzz word of One minute you're buying a the moment is. It's almost guitar, the next you're cutimpossible to classify, ting heads with a robotic other than to say it's weird, guitar warrior in an axe batand we wouldn't let any of tle to the death. It looks the programmers marry our good, though. sisters. Oh yeah, they're During all this you've got American as well. to find time to flick on your The aim of the game video camera, get back to makes it sound like that the editing studio, replay nasty piece of work, Kriss your work, splice in additionKross Make My Video on al footage, add sound effects Mega-CD but it couldn't be and captions, then choose a further from it. This is a tune which sounds right to heavy metal, corpse-dancing, accompany it. We might lose food mixing, guitar twanging, our marbles in the process utterly confusing piece of but we only hope we underpotential software landmark stand this better by the time excellence. It's really tough we bring you the review. describing exactly how the Excelsior, true believers! A Well this bit is one of those match the face games where you swap various facial features to create one almighty hermaphrodite mutant while digitised comments blast from the speakers in stereo. A Right, this is a dream segment OK? So all you have do to is manoeuvre the bulbs through the on-coming objects and plug them in to have sweet dreams about wrecks and bugs and rock 'n' roll. 6000 TINE This is one of the straightforward bits of the game. Simply release giant ball bearings to smash the objects on the conveyor belts below. Cuddly toy anyone? Take a fish tank and a radio into the living room? Get rid of all your spacerelated piscine and transistor blues by buying fish-radio. bec COMMUNICATION What's the connection between these video clips other than the fact they all come from the same game... Newsbleak TET We couldn't quite work this bit out and here's why: this zombie rises from his grave, plays a few cool tunes and you have to hit various letters of the alphabet which make the zombies in the background change the way they dance. Help mummy, I don't understand. ...no, we couldn't either.  GAME BY POP ROCKET CONTACT MINDSCAPE (0444 246333) FOR MORE INFORMATION 20 "


"TEL BRUCE LEE STORY ble to buy or rent from your local video stockist 51LUYE Enter the world of Dragon. A place where the martial arts legend Bruce Lee lived for 32 troublesome years. A place where you will encounter a multitude of the smartest and fiercest opponents ever seen in a beat-'em-up. At your disposal is a devastating array of over 35 different moves. You WILL need them...  Contains three different fighting styles: Mantis, Fury and Nunchuku.  Many secret special moves to discover  Using a Multi Tap, three human opponents can fight to the finish. UNIVERSAL SEGA GAME GEAR SEGA Master Sostenta The Bruce Lee Story &  1994 Universal City, Studios, Inc. All rights reserved. Licensed by MCA/Universal Merchandising, Inc. Game code.  1994 Virgin Interactive Entertainment (Europe) Ltd. All rights reserved. Virgin is a registered trademark of Virgin Enterprises Ltd. INTENDO and NINTENDO ENTERTAINMENT SYSTEMS are trademarks of NINTENDO. Sega Mega Drive, Game Gear and Master System are trademarks of Sega Enterprises Lid. Virgin Interactive Entertainment (Europe) Lid., 338A Lodbroke Grove, London W10 SAH "


"CVG PREVIEW WORK INPROGRESS SNES MEGA DRIVE Racing US Gold SNES/MD Unconfirmed Out November No other versions available PC and Amiga versions planned VERDRIVE Drive as fast as you like, with no traffic lights, police or waiting for old people to cross the road in US Gold's newie. onkey Kong Country isn't the only new console game to take advantage of state-of-the-art rendered graphics. Powerdrive, from Rage, also relies on them not to deliver something as trivial as cute jungle animals, but to supply realistic rallying action, with cars that look real and scenery that looks like it will write your car off if you hit it. Like the real thing, the aim is to win races to earn money, to improve your car, to win more races etc. If you manage your finances cautiously you'll end up with enough spend to upgrade to one of six bigger, faster and more durable cars. Speed isn't everything, though. A good driver needs to be able to master emergency stops, reverse turns and negotiate hairpin bends whilst driving in the rain. Just be warned that the handling of these cars will take a LOT of getting used to, especially under the varying weather conditions and treacherous terrains you'll encounter. Bash the bodywork around too much and you might just end up on a night course with no headlights! It's not because Rage are trying to make things tough, just realistic. MEGA DRIVE SNES QUALIFYING You'll need to make it to each checkpoint in the allocated time. As the race progresses the time gets tighter. MEGA DRIVE $1 VEHICLE COMPONENT CHECK ENGINE DAMASE 715 TYRE DAMAGE 732 SHOCK DAMAGE 224 SEARTRAIN DAMAGE 716 SPOTLIGHT DAMAGE x09 MEGA DRIVE SNES Here you need to reverse into the booth. Touch the bar. riers as shown here and penalty points will be yours. SNES A After sach race you get a status report on your car. At ehis point you can allocate your funds to repairs or just Teave them and buy upgrades. SNES These are the top cars you need to work your way up to. They're durable, fast and handle well. Perfect for the learn. er driver. A Driving in different weather conditions is demanding. A few runs on a practice track will make all the difference. SNES A If you don't earn sufficient cash you'll have to race against a bigger opponent car. Quite unfair really. A Sadly you can't run over the spectators so don't waste time trying MEGA DRIVE MEGA DRIVE For morice drivors there are plenty of practice circuits which cover all aspects of the te. But no other learners to cut up or swear at. Follow the arrows to get around each track as quickly as possible. It's easy to miss them mind you. GAME BY RAGE CONTACT US GOLD (021-606 1800) FOR INFORMATION CART SIZE: SMEGS 22 "


"PREVIEW CVG WOAK (INPROGRESS MEGA DRIVE I SNES Platform Acclaim ETBA OUT December No other versions available No other versions planned SNES Stand back Spiderman and back off Batman, the hardest superhero of them all is about to debut on console. ay before the more than liberal amounts of Nineties trend of punch ups. In both versions, showing the which don't vary that differdarker side of ently, Wolv-erine is very superheroes, one character capable of giving a lot better A Not just a dab hand with was slashing his way through his claws Wolvie is also than he gets, with an adept at martial arts. villains, chasing after women armoury and suffering the kind of perof wicked sonal angst that would make punches, us mere homosapiens spend kicks and a year in bed rather than put claw on a spandex costume and slashes, fight crime and that's most of Wolverine. Naturally that which made him utterly cool, sold would get millions of X-men comics for him into any para regiment a regiment MEGA DRIVE Marvel and had kids running without having to fill the around playgrounds worldforms in first. wide going 'snikt' and pre As for how well the game tending to stab each other in will do, well it's got the forthe head. With this kind of midable Wolverine in it, rep, it really is a wonder that innit? He's capable of doing this game has been such a for games what Arnie does long time in coming. for movies. Except for the Acclaim has opted for a spectacular' Last Action They say that brawn is nothplatform game format here, Hero that is. Oh dear, let's ing without brains. It's proba. bly true, seeing as brains is but mixed it up with plenty of not go down that route, eh? getting hit by brawn here, propuzzles to solve and and viding us with a rather nice screenshot WOLVERINE SNES A Obviously Wolverine's claws are his main weapon, but he has a few other tricks up his sleeve. SNES D'YOU SPILL MY SHANDY? MEGA DRIVE What separates Wolverine from other comic characters is a violent streak a light year wide. Rather than take the time out to procrastinate in front of a villain, he'll just dive in, claws first, get the job done and get out. There's no poncing around with mind powers of laser beam vision, all his powers are purely physical from his indestructible bones to foot-long claws. It's that abnormally aggressive edge which sets him aside from the usual hot-pants wearing Marvel and DC heroes. A After literally an hour's exhaustive research, Wolverine finally perfected his pirouetting half-axe windpipe slash. file view info sort help 3-FILES SNES SNES REAL TIME: LOGAN A Wolverine's most lethal move in the Mega Drive version is this rather dangerous. looking back-slash. MEGA DRIVE HEIGHT: HAHSIA LEIGHT: AFFILIATION : A Bosses reside at the end of each level and have specif. ic weak points that you've got to attack.   MANY FOANS MARTIAL To keep the genuine comic book fans happy, there's plenty of stills and animations keeping the plot up to date and giving the gamesplayers a chance to rest before a bad dose of joypad thumb sets in. The Mega Drive version features plenty of vandalism as Wolverine trashes enemy installations.  GAME BY ACCLAIM CONTACT ACCLAIM (071-344 5000) FOR MORE INFORMATION 23 "


"CVG REVIEW WORK IN PROGRESS AMIGA Platform Virgin LUNCONFIRMED SNES/NES/GB/MD/MS/GG versions avallable No other versions planned ALADDIN Obviously slowed down by his baggy pantaloons, Aladdin gets ready to shine on the Amiga at last... emember Cool game, which means Aladdin Spot and Global can use a sword to dispatch Gladiators? If so, the baddies with instead of then you'll have the wimpy apples featured in no trouble getting your the SNES version. The brain around Aladdin, which apples are still present howwill be based on a similar ever, but are collected to game engine. Aladdin is boost the player's score. Also platform based and sees watch out for jewels; which you battling it out over a can be used to buy wishes or number of levels until the extra lives in the shop, and final showdown with the the end-of-level fruit machine, despicable Jafar. which can be played to get Thankfully, this versionyet more lives and jewels. will be like the Mega Drive 2650. . 10900.000 As soon as the game's loaded, the Disney influence shines great graphics and sound! A Swing Aladdin round these poles to reach higher sections of the game. genie bonus level abu Bonus save princess jasmine restar 06nt health meter to spend apples A Ouch! Don't run Aladdin across the hot coals or his strength will soon vanish. Stand by them though, as the stupid guards will do anything to get to Aladdin including running across the coals and killing themselves in the process. A Unlike the SNES version in which they're collected for weapons, these apples only increase the player's score. Interacting with the background is a key feature of the game. A Aah, this is what I like. A picture that explains everything without me having to write anything. Oops, I already have! Every so often the shopkeeper pops up. NISHA Exchange a varying number of jewels collected for either wishes or extra lives.  ORIGINAL GAME BY DAVE PERRY CONTACT VIRGIN (081-969 2255) FOR INFORMATION 24 "


"YOU WON'T SEE ME WITH SPOTS. That's it. That's all you need to know about how to get clean, healthy skin. And how to keep it that way. Of course, even when I'm really careful a persistent spot can slip through the FACIAL WASH FACIAL WASH net. And if one does, I just use some Oxy 10. But I hardly ever have to. Hola pre Unblocks Antibacteria Helps prevent With added moistus Unblock peres Antibacterial With added moisturise HARDLY EVER. Twice a day, morning and night no more soap and water for me. Getting spots was no big deal. But given First, I wet my hands and clean them UNBEATABLE TREATMENT FOR STUBBORN SPOTS AND ACNE the choice, I can live without them. thoroughly with Oxy Clean Facial Wash. It's been a while since I've had one. Then I lather up some more and rub it Clinically Tested Nowadays I use Oxy* Clean Facial Wash. all over my face before rinsing it off. Always read the label. Oxy 10 contains Benzoyl Peroxide, *OXY and OXYCUTE 'EM are trademarks 0 0 OXYCUTE 'EM! COLOURLESS LOTION MAXIMUM STRENGTH "


"MEGA DRIVE MEGA DRIVE CVG PREVIEW WORK INPROGRESS MEGA DRIVE, SNES Beat-'em-up Acclaim MUnconfirmed SNES EUnconfirmed No other versions available No other versions planned In the cut-throat, often lardy world of wrestling, can Acclaim come up with the goods for the third time in a row? Team work is essential. Even if you haven't tagged your partner, he can still come in handy if an opponent wanders too close. A Flatten the ref and you can't be counted out. It's worth knocking him out just for the fun of it, rather than for any practical reason. WWF RAW MEGA DRIVE MEGA DRIVE Holeone to corigent' hink of wrestling and you instantly conjure up images of pink, middleaged men forced into lycra body stockings and looking for all the world like they're about to keel over from a massive coronary. Of course you'd be partially right, but in between them, where there's room, and now in this game are a whole new breed of dynamic wrestling types, and not all of them are men... Acclaim's latest bit of grappling action is based on the unedited WWF Show Monday Raw. It's a really great program because you get to see them make mistakes and actually hurt each other, which opens many new possibilities to the game. The results so far are more moves, different tournaments and a tin bucket with which to hit people. The addition of a (vaguely) female wrestler in the form of Luna Vachon seems strange, but she can match any of her opponents for speed and agility. She needs to. There are more moves in Raw than all the previous WWF games combined, plus hidden attacks and the all-import trademark finishing moves. Oh yeah, and there's the bucket which you can wrap around someone's head if they follow you out of the ring after chucking you out. A As well as the survivor series which featured in the previous game, there's now an option that lets you take on two opponents at once, If you're suicidal. A If your opponent's still got some energy when you pin them, their partner will climb into the ring stamp on your head. SNES AH, BUT IT'S ONLY ACTING The real-life action may only be play acting, barring accidents, but the moves in the game look realistic enough. Just check out these: An atomic drop is a sure way to daze an opponent and leave him singing castrato for the rest of the month. A Choke holds, like atomic drops, stun wrestlers when they're on their last legs, which lets you set them up for a finishing move. SNES SNES VACHON SERRES HEIGHTINDS Razor Ramon applies his patented Razor's edge throw which results in the victim being almost drilled through the canvas. HEIGHT : HONISHING FINAPSE Another classic from the World of Sport days, the good old piledriver puts most out for the count. PLAYER LE CHOOSE A The lovely (ahem) Luna Vachon, for people who don't know, has half her head shaved and fake veins drawn on the bald bits. She walks in a style that resembles Quasimodo's, and has a voice which sounds like she's been sucking on exhaust pipes. There's nothing like a mass bundle, especially when there are so many other wrestlers in the ring that you get overlooked and can hide in a corner. SNES BY UNMD BY SCULPTURED SOFTWARE CONTACT ACCLAIM (071-344 5000) FOR INFORMATION 26 "


"I'LL BE THERE. AROUND EVERY CORNER IN EVERY ROON AS INEVITABLE AS YOUR GUILTY CONSCIENCE SUPER NINTENDO ENTERTAINMENT SYSTEM Shadow. Ocean  1994 UNIVERSAL CITY STUDIOS, INC THE SHADOW TM &  ADVANCE MAGAZINE PUBLISHERS, INC, USED UNDER LICENSE. ALL RIGHT RESERVED TEGA DRIVE OCEAN SOFTWARE LIMITED. 2 CASTLE STREET . CASTLEFIELD MANCHESTER . M3 4LZ TELEPHONE 061 832 0033. FAX: 061 834 0650 "


"Hundreds of top-selling games at 72 price. (They won't take megabytes out of your dough.) Whatever your system there are hundreds of top quality games to choose from in the Woolworths k price software sale. IWOOLWORTHS Time A 130 S All items subject to availability IT'S RIGHT UP YOUR STREET. "


"PREVIEW CVG ISNES Sports GTE Interactive Media ETBA Out early '95 No other versions available No other versions planned KUPROGRESS STREET HOCKEY LET'S SKATE A Certain levels have extra fea. tures such as ramps and manholes which suddenly flip up, catapulting the surprised player right across the pitch. The player graphics in Street Hockey are made up from actual digitised footage, so each time your player takes a tumble you know that they've ended up with bruised elbows in real-life. Once the graphics have all been digitised and turned into sprite form, they can then be dropped into the game. It's an almost identical technique to that which is used in movie production. The actors are filmed doing their thang against a green background. The footage is then transferred to computer, the number of frames cut down and a proper computer animation sequence created. Remember the days of two-on-two footy against a garage door? Well here's the American equivalent... ince in-line skates arrived kids all over the country have been gleefully soraining and breaking themselves in the pursuit of speed, and now GTE is about to introduce us to an even more dangerous variant inine hockey. With just two players a side, no ref, almost no rules other than get the puck into your opponent's net, it's dangerous, painful stuff. To bring the action to life the characters are given a huge array of swipes, slices, leaps and skids made up from over 2,200 frames of digitised animation. Each player has their own set of strengths and weaknesses, which, combined with the different courts, should make for plenty of variety in the gameplay. They've also incorporated a two-player mode which is an important feature in this kind of game. One thing's for certain about Street Hockey it's fast. The end-to-end gameplay gives much bigger scores than you'd find in the real thing. BAS A Apart from the sticks and puck, there's not much similar ity between Street Hockey and the proper turf game, not until there's a goal anyway, at which point the players go ape. A All's fair in love, war and Street Hockey, as this player demonstrates. Why use the stick when you can use your hands. MUDA OKHACK As well as slapping the puck around, hockey sticks also double up as useful weapons especially when cracked across the ankles of any player who's showing off too much. PAC GAME BY GTE INTERACTIVE MEDIA CONTACT GTE (0101 619 431 8801) FOR MORE INFORMATION 29 "


"CVG PREVIEWS INPAOGAESS 3DO Beat-'em-up Crystal Dynamics ETBA Out November Neo Geo and SNES versions available No other versions planned SAMURAI SHODOWN New to the UK, publishers and distributors BMG is about to fire off its salvo of 3DO releases so expect an explosion of cheaper PAL games. CVG detonates two potential bombshells. ant to see a retained plus it's superbeat-'em-up on fast. Your task is to wipe out your 3DO that is 12 sword-wielding characters EXACTLY the one by one: attack with skill same as its coin-op parent? to snatch a weapon out of Well, you can on this very your opponent's hands and page of CVG because Takara's then give them a right slicing Samurai Shodown is here. and dicing: go in close and Every other beat the perspective will shift with 'em-up that's appeared on you. Naturally, special moves the 3DO so far has borrowed abound and the effectiveideas from Mortal Kombat, ness of these depends on with digitised characters and the status of a 'Rage Gauge' lots of gore: Way of The which grows if you're getting Warrior page 74 and smacked. Join us for the Shadow in particular. show down next issue. Samurai Shodown is different to the latter games because it's based STUDET around 'normal' graphics Street Fighter style and emanates from the Neo-Geo UGEON game of the same name. The quality of animation and scope of moves have been The speed of the game means that special moves have to be done really quickly, there's a lot to master. CREDITS IN PROGRESS 3DO Racing Crystal Dynamics .99 Out November No other versions available No other versions planned OFF-WORLD INTERCEPTOR The first driving game for PAL 3DO owners is revved up and ready to speed you along in a texturemapped version of Stunt Race FX. CVG intercepts the action... ake one monster sized truck and place it in an alien terrain, beautifully presented in texture mapped 3D. Assume that the driver of this vehicle is a bounty hunter out to dispose of fugitives, terrorists and other n'er-do-wells as he races through tricky off-road terrains. Intensify the action with the news that there are in fact nine different planets to be cleaned-up, not to mention competing bounty hunters and stomach-turning climbs and rolls to avoid. In short, there's a lot to do in this game. Off-World is all about control: take a ramp too fast and you'll tumble down the side of a mountain, quite possibly into some land mines. Ideally, you'll need to hunt out the boss and earn heaps of money which you can then exchange for special weapons and other enhancements to your vehicle. If you find the going too hard, you can always activate the split-screen twoplayer mode and play a friend. It's looking good. 30 GAME BY CRYSTAL DYNAMICS CONTACT CRYSTAL DYNAMICS (071-973 0011) FOR INFORMATION GAME SIZE, ONE CD "


"PREVIEWS CVG Charlotte Earthquake Galford Ha-oh Man Nakoruru Genan Shiranui  11. KK Each character has a selection of special moves or \"Methods of Mayhem'. Mainly these are based around weapons use. Some of the characters even bring their pets along to join in the fight. You don't control them directly, but they help you out when you're getting bashed. SDITO Kanzo Hattori Jubei Yagyu Kyoshiro Senryo Oryo Tachibana Tam Tam Wan Fu Other bounty hunters are after the same rewards as you. Try to knock them away whenever you get the chance. You can only drive forwards: there's no turning back if you miss something. COST Enter the split screen world for a head-tohead challenge with a friend. Watch out for mines placed in your path. Jump over them for the quickest escape. PLAYER 1 You can jump very high but don't try to leap anything too big or you'll tumble over, which makes you vulnerable to the enemy. 31 "


"as CVG PREVIEW WORK ZINPROGRESS PC CD-ROM Flight/Shoot-'em-up EA TBA Out November No other versions planned No other versions available WING COMMANDER 3. the heart of the tiger na LIU JO The force won't be with you, but Mark 'Skywalking' Hamill will be in the third part of the Wing Commander series as the interactive movie goes big time... n the CVG games room we're getting the chance to see all the new interactive movies, from Ground Zero on the Mega-CD to the CD-I's impressive Burn Cycle. What's looking likely to be particularly stunning though, is the third instalment in the series of games that pio. neered the concept of an 'interactive movie' Wing Commander. The problem with the first two games was that they had to rely on animated sequences and plenty of hard disk space, but now with the advent of FMV it looks like we're going to see Here we see the wchll production team whilst filming a scene with the Kilrathi enemy. I mean, hey, who needs Klingons when you've got these guys. something very special indeed with over two hours of film footage involved and a budget of $4 million. As Chris Roberts, the creator of WC explains: \"There's an intensity in storytelling you get with live actors that you can't get with animated film.\" The game continues along a similar vein as previous ones, ie the iniquitous kilrathi race is still being a serious pain in the rear end, and you as heroic starfighter Chris Blair (played by Mark Hamil, yes old Skywalker himself) have to do them before they do you. Your flying abilities will be paramount, as will dogfighting techiques each mission draws on your wing commanding talents. We'll be reviewing it as soon poss. HOORAY FOR HOLLYWOOD A Precision flying skills are required when you fly inside the larger vessels. In the Further Adventures of a Wing Commander the main ship is the TCS Victory. In true Millennium Falcon tradition it's an aging old tub that relies on its diverse and talented as well as luck. Approximately 50 Hollywood filmakers were involved in the making of Wing Commander III, and each scene had to be storyboarded before it was shot/drawn/rendered, and here is one such snippet in its rawest form. Yes! Burgeoning development costs, lots of luvvie actors on highly expensive sets, cinematographers, dramatic soundtracks being composed and to top it all veteran screenwriter De Palma (albeit Frank and not Brian) roped in to pen the script. No! We're not talking about the next Christmas box office blockbuster, but the latest Wing Commander. Taking the lead in this FMV-laden sci-fi adventure is the man who took the lead in three of the most successful films ever, the Star Wars Trilogy Mark Hamill no less.... There are about 40 or so different missions to put you through your paces and various advanced Starfighters for you to crash and burn. GAME BY ORIGIN CONTACT ELECTRONIC ARTS (0753 549442) FOR INFORMATION COMES ON TWO DISCS 32 "


"CRYSTAL DYNAMICS Total Eclipse The Horde Off-World Interceptor Star Control II PaTaank WITHOUT CRYSTAL DYNAMICS... ...3DO IS JUST AN EXPENSIVE TOY. Bus Crystal Dynamics. Off-World Interceptor. Total Eclipse and The Horde are trademarks of Crystal Dynamics Inc.  1994, Star Control II is a trademark of Accolade, Inc.  1994. Fred Ford and Paul Reiche III. PaTaank and PE Magic are trademarks of PF Magic  1994. 3D0 and the 3D0 logos are trademarks of the 3D0 Company. All rights reserved, 3DO "


"CVG PREVIEW NICE DOC & SONS SPECIAL EDITION We're not the only people to go loopy over Doom. A major Hollywood movie company has picked up the rights to produce a movie, and in the battle of the new consoles, it's Doom vs Doom, although Atari has something rather special up its sleeves... So lock and load, put your fighting trousers on and feast your eyes on the kind of action that until recently console companies could only dream of... JAGUAR GAME BY id SOFTWARE CONTACT ATARI (0753 533344) FOR MORE INFORMATION 34 "


"PREVIEW CVG IN PROGRESS JAGUAR Shoot-'em-up Atari Unconfirmed Out Nov/Dec '94 PC versions of Doom & Doom 2 available No other versions planned We love Doom, we love Doom, we love Doom, we love Doom. And now it's on Jaguar. 'Nuff said. Ill. There's notsible to do on a 16-bit machine, a fact which much left to be has blazed a trail for the Jaguar version. And said about the first impressions are nothing but good. Doom that we, As you can tell from the screen shots, the or everyone else hasn't graphics are identical to the PC original. said yet. It can be something which is particularly impressive summed up thus: fast considering this isn't just a straight port. 3D, big guns, plenty Rather than dump the original PC code on to to kill, superhuge fun the Jaguar development kit, the programmers with a chainsaw. It have started the game from scratch, and really is that simple. although they've stuck to the same winning However, until now formula, they've also been able to make you've needed at least some enhancements. Atari describes it as  worth of PC to being a sequel to Doom, and that's where play it on. Thankfully the Special Edition bit comes in. Atari, in a fantastic disAlthough finding fault with Doom is liable play of foresight, has to get your hands chopped off in some parts made it one of the first of the world, even the most ardent Doom licensed games for the Lord has to admit that some of the levels, Jaguar but it doesn't stop perhaps, weren't as interesting as they could there, thankfully. have been. That's obviously the opinion of Doom, to put it lightly, is a phethe people responsible for the Jaguar version. nomena. There's even a Doom They're planning to add to levels and replace club on Internet. And if you're a others. So you're guaranteed to get stuff in regular CVG reader you'll know this version that you won't find anywhere we namecheck it more than a else. With Doom on its way and Alien Versus tabloid entertainment columnist Predator out now this is very good news for brings up Take That (urgh). the Jaguar without a doubt. And the brilliant We're self-confessed addicts, bit is that the two games really are different, and things aren't going to get any as we point out in our Aliens Versus Predator better for us as the first console review, starting page 44. Meanwhile load version will be making its debut your shotgun and refuel your chainsaw in before the year's out. This game is impostime for the Doom review next issue. A One of the best moments in Doom is when you pick up the Berserk pack. It looks like an innocuous medical kick, but once collected, the screen changes colour, you become almost impervi. ous to damage and are capable of killing most creatures with just one punch. Best of all is that it lasts for the whole level! A These zombie soldiers are your former colleagues, although they don't recognise you anymore. A perfect excuse to fill them full of hot lead/plasma/buzz saw. 35 "


"CVG PREVIEW AN MO' GUNZ DOOM Knuckle Dusters You've got to be desperate to resort to these, or just sick. Get the berserk pack and you'll be able to wipe out most lifeforms with one punch. Chainsaw More fun than a life-size jelly model of Claudia Schiffer. Makes minced meat out of monsters and has the rest scarpering in fear. It doesn't run out of fuel either. When there are all the soldiers that hell can muster up, and you're stuck in the middle, it's going to take more than just good intentions to get you out of the mire. Guns are secreted throughout the game's levels, and if you know where to look, you can tool up with a complete arsenal early on. Pistol Get a decent weapon as soon as poss, as the pistol just doesn't cut the mustard. It's the worst gun of all and, frankly, embarrassing to use. You're better off with fists. Shotgun The preferred weapon of professional Doom lords, big, brutal and bloody fun. A good spread of fire, economical with ammo and devastating at close range. CANNON FODDER BFG 9000 Chain Gun Takes ages to kill bigger crea. tures, but great for strafing a room full of zombies. Goes through bullets at a rate of knots though. Rocket Launcher Excellent at long range, but close up it'll catch you in the blast too. Downs Cacodemons with just two shots. Plasma Rifle Unleashes wave upon wave of deadly plasma energy. Powerful enough to trash most creatures and is good for strafing with. We won't tell you what BFG stands for, but it can empty a room in one shot. However you only get a couple of shots, so use them wisely. ME AND MY POSSE Apart from one or two large and deadly characters, which you'll have to deal with all by your lonesome self, here are the kind of ugly great mothers lurking in dark corridors and who comprise the bulk of your opponents in Jaguar Doom. Precisely how they take to you prematurely ending their vitriolic existence is anyone's guess, but mine is that they won't be 'appy. In the slightest. In fact Although everything you'll encounter in the Jaguar Doom is out to kill you, drink your blood and dine on your flesh, a sneaky player can gain some unwitting allies by letting the creatures fight each other. ARAS LEVER Now sit back in a quiet corner and watch the carnage. Whatever the result, the winner will end up much weaker, making the job of finishing it off much easier. FEPIMO HEALTH DEATH MATCH When the screen gets busy and there's all sorts of crap flying around, remember that what the hell-spawn in Doom hate the more than anything is being shot by their own side. One feature Atari is desperately trying to incorporate into the finished game is a link-up feature, so two Jags can be hooked together for a cooperative or head-to-head death-match game. This is one of the best features of the PC version, and if Atari manages it for this game, we'll doff our hats and get ready to chainsaw each other to death. END HEALTH POR AS LEVE Which is exactly what's happened here. Try to lead the more powerful creatures right into the crossfire. Thankfully you're pro. vided with a run button, which is something you'll be using a lot when you play the game. A Life-sapping hazards don't always come on two legs. Plop into an acid pool without adequate protection and you'll soon be walking around on fizzing knee stumps. 36 "


"PREVIEW CVG CNPROGRESS MEGA DRIVE 32-X Shoot-'em-up Sega Unconfirmed 1 Out Nov Dec '94 IPC versions of Doom & Doom 2 available Jaguar version planned ITIEGIDRIVE SEG DOOMED AGAIN? Now that the basic engine has been written for the game it won't take much to produce Doom 2. It's essentially the same, but with new levels, creatures and a fantastic double. barrelled shotgun. Find out more by reading the review of the PC version on page 58. ASTY Let's hope that the advent of Doom on 32-X will lead to more PC-to-console conversions. Games like Indycar would be fantastic on cartridge. BI SEX For Sega's landmark hardware upgrade comes a real landmark title. It's going to be the most violent Sega game ever of course it can only be Doom. here's an old already, retaining the saying that wh same graphics and speed en computer of the original. However, power doubles, what isn't known is existing prices half. And whether Sega will certifionce more it looks like cate the game, and if being proven with the they do, what it will get. arrival of Doom on 32-X. The final cartridge When the game was size hasn't been decided first released it was yet either. On the PC the strictly PC only, there game takes up a chunky was nothing else on the 14 megabytes of hard home market capable of drive space. But then, PC, running it. But now, a programmers are notoriyear on, the 32-X is ous for not compressing about to arrive, offering game code simply becPC performance, and ause they know that Doom, for . almost every PC owner Although the version has a hard drive. Chawe saw was at a fairly nces are it will weigh in early stage, the devel with at least a 24, or opment is coming on in maybe even a 32-Mbit leaps and bounds and cart. Hefty stuff. HOWthe game's well on ever, if they get the schedule for its Christ game right, it will be mas release deadline. worth the extra few quid It's looking very good for the larger cartridge. Even on high-end PCs the game slows down when the screen gets really busy (ie over a dozen creatures), but with its twin 32-Bit processors there's a chance that the 32-X can handle the pace when the going gets tough. It's still not known whether Sega will be sticking with the original Doom levels, or introducing new ones as Atari say it'll be doing with the Jaguar version. We can but hope and write begging letters to Sega LFER If you need convincing about why Doom's so brilliant, pop along to your local software shop and ask them to demo the game to you. It's simply one of the best things to happen to software in years. The fact that the 32-X is more than capable of running Doom is a good indicator as to how fast it can run other kinds of game. Texture mapping is a key feature in many games these days, largely thanks to Doom. GAME BY id SOFTWARE CONTACT SEGA (071 373 3000) FOR MORE INFORMATION 37 "


"GORILLAS IN THE FIST DOT MATRIX WITH STEREO SOUND GAME BOY START BATTERY Nintendo 240199 Nintendo GAME BOY SELECT START DONKEY KONG Ook ook ook. Ook ook Donkey Kong. Ook ook, ook ook 100 levels ook; ook ook. Ook ook ook battery-backed memory ook ook. Cook Super Game Boy ook ook 256 colours). Ook ook .99. Ook ook ook ook. Ook ook. GAME BOY Nintendo "


"THE REVIEWS START HERE... CVG reviewed this month. here's a sky-high pile of excellent games in this month's reviews section and how many of them have we got to first? Loads is the correct answer, including the fabulously playable StreetRacer, Burn:Cycle, FIFA 3DO and Mickey Mania, which is probably the best Disney licence for centuries. Oh, and read all about these, too... Mega Bomberman, The Adventures of Batman and Robin, Colonization and the not-unpretty-looking Super Stardust. Enjoy! Steve James, Managing Editor What we're playing this month This month's hot-hits HIT! Doom p.58 STEVE Doom 2/PC Being an angst-ridden hyper-tense editor, it's either Doom or life in the slammer for murder. Micro Machines 2/MD The multi-player mode is brilliant, especially as Rik and Den have to let me win if they want to live. The Adventures Of Batman and Robin/SNES One of the finest cartoonto-game conversions of all time. Superb graphics arid playability. GARY MARK Doom 2/PC I don't care if it's just like Doom, it's still brilliant. Almost my game of the month behind... Colonization/PC Civilisation is my all-time fave game, and this is almost as good. Micro Machines 2/MD One of the finest Mega Drive games of all time, especially in four-player. Here at CVG we don't give high scores away lightly. A game has to be rather special before it scores over 90% and a CVG Hit. Even rarer though is a CVG Gold (awarded to games that have pushed back the boundaries of gaming) but don't expect to see more than a few of these a year as it takes a score of over 96% to earn one. Anyway, here are the top games this month... SELECT COURSE Micro Machines 2 p.100 RIK 40 Burn:Cycle/CD- 42 Earthworm Jim/MD+SNES 44 Alien vs Predator/Jaguar 54 Rise Of The Robots/PC+SNES 64 FIFA International Soccer/3DO 68 Sonic & Knuckles/MD 70 Batman and Robin/SNES 90 Street Racer/SNES 98 Mickey Mania/MD+SNES The Adventures Of Batman and Robin/SNES The most fun you can have wearing tights and leather pants without getting arrested. Red Zone/MD Hmm, plenty of chopperrelated double entendres and brilliant rendered explosions. Street Racer/SNES Mey Dinc told me it was realy good and I believed him. DEN FIFA Soccer/3DO Street An essential Racer/SNES purchase. It It's the looks great most and is playable incredibly racing game immersive. One of the best on the SNES | football games of all time. -even better Sonic & Knuckles/MD than Mario Kart. A great new game but Way of the Warrior/3DO more fun is had plugging in Ever since the dire Ultra the old Sonic games and Man on 3DO I've been wait seeing all-new stages and ing for a decent beat-'em-up bonus screens. on this machine. And this is. Mega Bomberman and Doom 2/PC Micro Machines/ MD You can pretend that the Bland one-player games monsters in this game are but grab some mates for moaning CVG designers and unrivalled multi-player blow them to pieces. games fun. The big picture If any other version of a game is available, then we'll tell you via our Alternatives and Other Versions boxes. We'll even tell you it it's destined for any other formats. For consistency's sake, games retain the original scores in alternative boxes. 39 "


"CD-i CVG REVIEW CD-i Adventure Philips .99 Out October PC and Mac versions planned No other versions planned Truth may be stranger than fiction but fiction is more believable when it plays like Burn:Cycle. A CD-i game so shocking it had to be censored... ntil recently, most decent CD-i games relied on the MPEG cartridge to provide the graphics. It's rather ironic, then, that the brilliant Burn:Cycle contains more FMV than we've seen for ages and it doesn't even require the MPEG unit very good news for existing and new CD-i 450 owners alike. You take the role of Sol Cutter, a futuristic data thief unknowingly infected with a killer brain virus. Two hours remain before you're history, and in that period you must gather tokens, solve puzzles, kill, bargain and try to track down Softech, the company who planted the virus in the first place. There are three key gameplay elements: shoot-'emup, exploration and puzzles. They crop up randomly, blended together seamlessly with excellent video sequences. As you drift from place to place in realtime 3D you don't just play for fun, you play for realblood, love, and life. burn:cycle 90 DOV 10000 VOO A The bar lady has more than just drinks to offer. You get to pick one item, so think about it. A Down at the bar, you can get anything you like for the right price. Bargain with items you find elsewhere. 21 A Move the cursor to the bottom of the screen and your inventory scrolls up. He Out in the televerse, parts of Cutter's body are crumbling away. The Buddha holds the secret to your escape. A On the way to Cutter's room Gala makes a comment about keeping her legs shut-she's a nice girl you see. 40 40 GAME BY TRIP MEDIA/PHILIPS CONTACT PHILIPS MEDIA (071-911 3000) FOR INFORMATION GAME SIZE: ONE CD G "


"REVIEW CVG LOST AND FOUND DEPOT Getting through Burn:Cycle successfully will require the collection of numerous objects. Some are necessary for bargaining with, while others provide access to inaccessible places. Here's what you should keep a look out for First Marmi Bank of Conscious Credit Jano Tri-ZAMISOF S 6328162 TRIPWORLD OWERBRUNCI valid Basantha FX057503 This is the futuristic equivalent of a bank, and Sol Cutter has a refined taste for Nigerian money. card tra Sanics Vol Gala is a futuristic mercenary who helps you out during the game. You can call her at any time with your remote unit, but you'll have to decide if she's to be trusted. VERDICT Here you are the follically challenged Sol Cutter. Most of the game is played through his eyes but when the FMV cuts-in you get a spectator view point. Who's this? Well, it's the big surprise of the game, and we ain't telling so you'll have to complete it yourself. CD-i The quality and quantity of Burn:Cycle's FMV footage is impressive, and the fact it doesn't require the MPEG cartridge is amaz. ing. If you can imagine a film where you make the decisions, you'll have a good idea of the gameplay on offer it's not just trial and error. The only weak points are the shoot-'emup segments, but this is compensated by the amount of thought and involvement required to play the game. The most impressive CD-i title yet! DENIZ AHMET Purple A In this sub-game a smoke bomb has exploded and you must guide your way out. SECOND OPINION GRAPHICS 93 SOUND 91 PLAYABILITY 84 VALUE 85 OVERALL This is the kind of game I've been waiting for ever since the CD-i was launched. It's the perfect blend of action, adventure and video footage combined with a strong storyline and a quality script. It doesn't rely on actors to provide the interface between player and game, and as such is thoroughly absorbing. You're pretty much left alone to explore the game at will, which is what really makes the game so playable. All this makes for a game which is a certain classic. Top stuff. MARK PATTERSON 13 "


[...]


"CVG HELP! A CD 32 FAN MR MONEYBAGS 1. I've got  to spend on a console. I already have a SNES, Game Gear and PC and can't decide between a CDi, Jaguar, 3D0 or CD32. Which one would you say is best? 2. Do you think it's worth waiting for the Saturn or Ultra 64? 3. I was told that Nintendo would bring out a CD drive for the SNES. Is this true? 4. Is Sim City 2000 as good as they say it is? 5. In Issue 154 you said: The Sony PlayStation would be the 'best bit of kit out. Is this right? Mr Money Bags, Kent I'm interested in the CD32 so here's a few questions: 1. Wil Super Streetfighter 2 ever appear on this system? 2. Are there any CD32 joysticks available? 3. Will CD+G be sold on shelves at shops and be as popular as tapes, and is the FMV unit required to play them? 4. Will a music package like Octamed be released? And will any special expansions be needed to use it? D. Beckett, Isle of Wight 1. None of them is the best, they all have strengths and weaknesses. At the moment though, 3DO is leading the pack. 2. They both should be great, it could be a long wait though... 3. It seems unlikely to ever see the light of day now. 4. Better 5. it's brilliantly specced however both Sega and Nintendo are reputedly delaying the releases of the Saturn and the Ultra 64. In order to fight it off. MISERABLE MEGADRIVE OWNER AEG CD I have a Mega Drive but am wondering whether should sell it and get a Saturn or buy a 32X upgrade. Will Sim City 2000 and Theme Park be released on either of these machines? I would be grateful for your advice. D. Brookes, Walsall We wouldn't advise selling your Mega Drive, there's some cracking software coming out for Sega's 16-Bit machine over the coming months. Wait and see what the software will be like before commiting to the 32X. Saturn won't be out here for ages but looks like an excellent machine and will definitely come with a recommendation when it's out. It's unlikely Sim City 2000 or Theme Park will hit the 32x, but with the power of the Saturn there's no reason why they shouldn't eventually Mappear, apart from the fact they'll be knocking on by then. 1. It's very unlikely 2. Not to our knowledge. 3. CD+G's have been around for about five years and the infor mation is already included on a normal CD. The only one that springs to mind is the last Fleetwood Mac album. mainly because it was the first CD+G disc available. You don't need an FMV unit to play them, just a CD+G compatible CD player, 4. Something commercial will probably be released sooner or later but we don't know of anything at present. PD stuff like Octamed can be picked up on PD CD's available from decent PD Wbraries. Scan the small ads in CU Amiga for one. GAME TIPS goers, who would like to watch all of the Full Motion Video clips, but without actually playing the fine game then we can show you how. In the game hold UP, A and B. Then press P. While paused hit RIGHT, A, LEFT, LEFT, A, UP, and B. Press P to skip the scenes. 3DO TOTAL ECLIPSE It was a great move by Panasonic to bundle this game instead of Crash and Burn with its PAL 3DO machines, but if you're finding yourself eclipsed by the complexity of it all try this level skip: Go to the Quit/Preview option and hold down STOP, push B, L, A and release STOP. Now push B, A, L, B, L and A and you can start on any of the first 20 levels. 3DO ANother WORLD You'll be out of this world and into another a lot quicker than you think if you use these passwords, which were kindly gathered by ours truly while reviewing the game in CVG 152. LDKD Level 1 HTDC Level 2 CLLD Level 3 LBKG Level 4 XDDJ Level 5 FXLC Level 6 KFRK-Level 7 KLFB Level 8 BFLX Level 9 BRTD Level 10 TFBB Level 11 TXHF Level 12 CKJL Level 13 LFCK Level 14 IIO "


"Q&A CVG DUTCH DILEMMAS... anasoni the computer save your game. If you now exit the control room and hold START on pad two a node jumper should appear. 1. Have the 3DO, CD-i and Mega CD been improved because they didn't start off too well? 2. Will the Saturn be 32 Bit or 64-Bit? 3. Will these games come out on SNES: Urban Strike, Doom 1 and 2, Sim City 2000, Gunfighters, SSF2 Turbo and EA Tennis ? 4. Will there ever be a Streetfighter 3 and do you know anything about it? 5. When will you have a big tips book on the cover again? 6. Are these sequels planned: FIFA 2. Sonic 4. MK3, Super Metroid 2 and Super Return of the Jedi? D. Kooy, Holland 1. The 3D0 looks better and better and has some cracking software at present and in the pipeline. It would be even better if the price came down. The MegaCD is still suffering with only a handful of decent games, while the CD-I is just getting off the ground as a games machine with titles like Burn Cycle (reviewed this issue), but it is the business for CD films with an ever increasing catalogue of great titles. 2. 32-Bit. 3. A good chance, no, no, next Easteri no & no and probably 4. It's in development at the moment. It's believed only Ryu, Ken and Sagat will survive from number 2, and news in from the set of the up and coming Street Fighter movie is that Kylie, Van Damme and Raul Julia will appear in the third version of the game, giving sFill a Mortal Kombat look. More news as we here it. 5. We're more interested in bringing you booklets on new technology at the moment but who knows, are there any readers out there who'd like to see another tips booklet? 6. It's almost here, yes as Sonic & Knuckles, it's in development, possibly and it's almost here. MEGA-CD WONDERDOG IYou'll find comfort in these level passwords. Level 1: Mystic Level 2: Ankles Level 3: Ledzep Level 4: Reeves Level 5: Pixies Level 6: Woopie this cheat only works on a coin-op with Free Speed Select. Pick speed 3 with the Fierce button when the cursor is on Ryu (both players). After hitting Fierce, pause for two seconds and move to T.Hawk. After another two seconds move to Guile and pause again. Now move to Cammy but pass through Dhalsim. Pause again (but just for a couple of seconds). Move to Ken then Ryu and pause for a final two seconds. If you now press all three punch buttons and START simultaneously, Akuma will replace Ryu! Good luck with the po PC CANNON FODDER Got a copy of Sensible's excellent warmongering game> Are the little peorest! HOME 3.0 AWAY THE HELP! LINE skip stages. Mega-CD JURASSIC PARK To find the Node Jumper which lets you skip stages and view all the film footage follow these instructions, which are more simple than a Sue Barker cooking recipe. Collect one egg and find the pliers in the toolbox at the visitor's centre. Using the pliers, remove the blue keycard out of the slot before the large wooden entrance. Once you've got the keycard, go through the doors and to the visitor's centre. Inside, go up the steps and enter the second door to the right with the blue keycard. In the office, find the incubator and place an egg in it. Next, exit and go to the control room. After accessing 020 ple in this bloody game getting on your nerves? Well you can skip past them, and to any level you please, by simply pressing SHIFT and ENTER to find the level you truly want to be on. We live in the caring, sharing nineties, so hey! If you've mapped out a level, found a secret part of a game or you've just got a common or garden hint or tip (and that doesn't mean we want adice on planting sprouts, OK), then send it in. And if it's any cop we'll print it. Address your correspondence to: CVG Help!, Priory Court, 30-32 Farringdon Lane, London EC1R Mega-CD FIFA If you'd like to see some secret video clips go to the coaching/stats option and move the soccer ball next to formations, coverage or strategy. Press A on one of the options and you should see a clip. | Mega-CD CLIFFHANGER Here's a simple tip. For 99 credits take controller 2 on the title screen and press LEFT, RIGHT, START, C and A. Simple eh? Alternatively, if you'd like to access a level skip press START, C, B, A, RIGHT, and LEFT. Press C while paused to ARCADE SUPER STREET FIGHTER TURBO A lot of readers we've spoken to recently have been getting the Akuma cheat wrong, so read on if you want to know how to play as Akuma. Please note, "


"CVG COMPETITION JAGUAR BIG EDS win The editors of Britain's top games magazines tell us what games have molested their fancy this month... Com po an 'ectual slice of alien versus predator! Andy McVitie, Editor NMS has been the only magazine Nintendo Magazine System to play Donkey Kong Country this month and that's because we've got the exclusive review! It's sure to be the Christmas number one! The NMS crew has also amassed a pile of new sports games, comprising NBA Live, International Superstar Soccer and NBA JAM on Game Boy. Steve Merrett, Editor 32X fever hits Mean Machines Mean Machines this month, as we unveil Virtua Star Wars in an exclusive review. Fans of the coin-op are going to wet their slacks when they see this! However, when we're not struggling against the evil Empire, we're also busy with the superb Micro Machines II. All of the models used in the game were digitised, so you get a chance to win something that actually appeared. Richard Leadbetter, Editor Micro Machines II. What a Sega Magazine game! The Ecco Ils, Lion Kings and Mortal Ils may be the really big sellers this Christmas, but in terms of sheer enjoyment, it's the Codemasters' game that gets my well-considered vote. It's so simple that it could well be the best Mega Drive game of all time. Forget about your virtual, actual and quasi-'ectual reality so beloved of Late Show types... Yup, this is your chance to obtain a real and proper slice of a top-notch game... For the first time in Amiga hisAlan Dykes, Editor CU Amiga tory no-one is bothering to do a Christmas game. But who cares when you're getting spectacular graphics in Super Stardust and a game which is better than Sensible Soccer Football Glory. Keep your eyes peeled for Sim City 2000, TFX and Tower Assault. Those short-and-colourful-haird men of Rebellion Software have deposited on our desks a number of lovingly framed model wall panels which were filmed and used in their excellent new Jag game, Alien Versus Predator (top review, page 44 this issue). The models are for you to win! 000OCOCO Simon Byron, Editor Time to reveal a secret. I am in The One for Amiga Games fact Dr Who and galactic forces are transporting me from the One Amiga to a new dimension. Next month I'll look completely different, but in the meantime I've been playing a truly excellent conversion of Aladdin and, once again, Sensible World of Soccer. All you have to do is to answer the following easy question, pop it on a postcard and send it to: 'ectually, Computer and Video Games, EMAP Images, Priory Court, Farringdon Lane, London EC1R 3AU. Entries in no later than 25 November 1994. David Upchurch, Editor Christmas is coming so be PC Games happy-unless you're a Turkey. We've been playing the excellent Ecstatica from Psygnosis, which could be one of the best 3D games you'll see even better than Alone in The Dark II. But it's hard to drag me away from the rather good Wing Commander 3.... And your question is... In which Predator film did an Alien's skull appear? Christina Erskine, Editor This month I've been net-surfPC Review ing and chatting with pundits about life and love. Meanwhile, the rest of the team have been splatting blood with Doom 2, and declaring independence in Colonization. For Christmas though, we're all getting high about Magic Carpet it's simply amazing. And remember, you will never ever be able to buy any of this Alien and Predator merchandise. Anywhere. Not open to anyone who works for, supplies, or is a relative of the following companies: EMAP and Rebellion Software. Also excluded, all of the beautiful but deadly operatives of that worldwide web of machinemeisters, A.T.A.R.I.. So there! Steve James, Managing Editor Alien Versus Predator Computer and Video Games gets a great big new machine thumbs up from me this month, as does Burn:Cycle. Back in the land of 16bit, The Adventures of Batman and Robin (reviewed page 70 this ish) is going to keep me glued to the screen for ages. Finally, Magic Carpet's looking mouth watering. I can't wait to get my hands on it. 112 "


"CHARTS CVG chart attack with HMV HMN Welcome to Mortal Kombat 2 month! Yep, the sizzling reviews have assured it of the top slot in all its released formats. Let's see if it can hold its position until Christmas... but expect Doom 2 to make a major, major impact next month. See you then... NOW HMY KNOW GAME all format top 10 snes top 5 gb top 5 nes top 5 Mortal Kombat 2 Acclaim Mortal Kombat 2 Acclaim Tetris 2 Nintendo FIFA Int.Soccer Ocean Donkey Kong Nintendo Kirby's Dreamland Nintendo Super Metroid Nintendo 2 Power Rangers Bandai Pacman Nintendo 3 Jungle Book Virgin o Warioland Nintendo Micro Machines Codemasters Sim City Nintendo Tetris 2 Nintendo Yoshi's Cookies Nintendo mac top 5_nc top 5 md top 5 Myst EA Space Simulator Microsoft Mortal Kombat 2 Acclaim Demonolo Mortal Kombat 2 Acclaim SNES, MD, MS, GG, GB This is the best conversion of a coin-op we've seen for ages. Each format has been pushed to the limit of its abilties and it's a bloody good game too. Super Street Fighter II Sega MD One day you're all moaning about the high price of games and the next you're out there buying essentially the same game twice. Please explain why? TIE Fighter Virgin PC Basically X-Wing played as the enemy. This sequel is totally essential for any PC owner looking for a shoot-'em-up with depth and challenge. Tetris 2 Nintendo GB The magical addiction of Tetris returns. Not much different to the bundled original, but obviously the public want it and we don't mind it either. FIFA Int. Soccer EA MD, SNES, PC The most atmospheric footie game around isn't as playable as everyone makes it out to be. Totally fab on the PC, though. Smash Tennis Virgin ISNES A cute tennis game which handles so well, you'll be desperate to try it out with a multitap and four pals. Very humorous, too. Jungle Book Virgin MD, SNES One which probably sells on its big-name appeal alone, but expect it to drop big time when Earthworm Jim (see page 42) hits the scene Theme Park EA PC, Amiga Fancy managing a Theme Park and building rides which you can sit in? Well, that's what this game is about, and it's the business Pete Sampras Tennis Codemasters MD Enjoy four-player tennis in the best tennis game on the Mega Drive by far. Superb control will have you on the edge of your seat. Warioland Nintendo GB There seems to be no end in sight for this mega-selling platform game. No complaints from us though, we play it on the way to work. Syndicate EA O TIE Fighter LEA 2 Super Street Fighter 2 Sega Sim City 2000 Mindscape 3 Theme Park EA EA Jungle Book Virgin Peter Gabriel's Explora Real World Doom LID Software Pete Sampras Tennis Codemasters 7th Guest Virgin 5 FIFA Int.Soccer EA Streets of Rage 3 Sega mcd ton 5 ga top 5 ms ton 5 Jurassic Park Sega Mortal Kombat 2 Acclaim Mortal Kombat 2 Acclaim FIFA Int. Soccer LEA Sonic Spinball Sega Sensible Soccer Sony amina ton 5 300 ton 5 Tomcat Alley Sega NBA Jam Acclaim Sonic Chaos Sega 1 1 2 3 Mortal Kombat 2 Acclaim Aladdin Sega Desert Strike EA On the Ball Anco Kick Off 3 Anco Beneath a Steel Sky Virgin Skidmarks Acid World Cup Year '94 Empire Road Rash EA A Pebble Beach Golf Panasonic Super Wing Commander EA Shock Wave EA Escape from Monster Manor EA Battlecorps Core Star Wars Sega WWF Steel Cage Acclaim move up move down non-mover new entry 113 "


"CVG COMING SOON TEKNO3! cruisin' for a You won't find a better or sexier-looking guide to new machines, and next month Tekno returns with the latest news on the console that many are claiming will support some of next year's best games the Sony PlayStation... the lion roars For those of you who missed the CES report in issue 153 (where were you?), Cruisin' USA is among the very first of the games destined first SAEMON for the arcades and then for Nintendo's forthcoming 64-bit conHOLLYWOOD sole, Ultra 64 (and it won't be any different, allegedly). You've read the very first preview this month now read the first review of this potential blockbuster.... OK, ok, so we all hate the ultra-crap theme song by Elton John but the game of the new Disney film, Lion King, is about to burst out of the savannah and into our paws.... citement \"NEXT MONTH Megarace got a resounding thumbs-up and a score in the nineties when it appeared on CD-ROM in May. Its conversion to 3DO should provide the hot new console with one of its many top new games so don't miss the review next month. DU It's hardly surprising but Star Wars games have always been up there in the popularity stakes along with Coca-Cola and Buddha himself, lord bless 'im... next month we review the very latest Star Wars release, the seemingly rather excellent Super Return of the Jedi. COMPUTER Oh, and there'll be the usual brace and a half of top games under scrutiny including Super Drop Zone, Lemmings, Cannon Fodder and Dino Dini's Goal, plus Psycho Pinball, Lethal Enforcers 2, Generations Lost, plus, if Virgin will let us get our mitts on it, Creature Shock.... GVG 157 OUT NOVEMBER 15 THE MAG THAT REAL GAMERS READ 114 "


"LET THE MANIA BEGIN...  Disney "


"SLAP IT IN THE SLOT NHL GO AND GIVE YOUR SNES A TASTE OF REAL POWER-PLAY SUPER NINTENDO ESPORTS ENTERTAINMENT SYSTEM NLPA nds NHLPA and Becicted are REY LE 1994 Electronic Arts. EA SPORTS, the EA SPORTS logo and it's in the game, it's in the game are trademarks of Electronic Arts. NHLPA, National Hockey League Players Association and the logo of the NHLPA are trademarks of the NHLPA and are used, under license, by Electronic Arts, NHL, the NHL Shield and Stanley Cup are registered trademarks of the National Hockey League. Team names and logos depicted are officially licensed trademarks of the National Hockey League 1994 NHL. ALL RIGHTS RESERVED OFFICIALLY LICENSED PRODUCT OF THE NATIONAL HOCKEY LEAGUE PLAYERS ASSOCIATION, 740901 OCEAN SOFTWARE LID 2 CASTLE STREET CASTLEFIELD. MANCHESTER M3.412 . TELEPHONE: 061 832 6633. FAX: 061 834 0650 "

